; Продуктивный прогон. nsteps подставляется скриптом (sed) под нужную длину.
integrator      = md
dt              = 0.002
nsteps          = 2500000          ; 5 нс при dt = 2 фс
nstxout-compressed = 5000          ; кадр каждые 10 пс
compressed-x-grps  = Protein
nstlog          = 25000
nstenergy       = 25000
continuation    = yes
constraint_algorithm = lincs
constraints     = h-bonds
lincs_iter      = 1
lincs_order     = 4
cutoff-scheme   = Verlet
nstlist         = 20
rcoulomb        = 1.0
rvdw            = 1.0
coulombtype     = PME
pme_order       = 4
fourierspacing  = 0.16
tcoupl          = V-rescale
tc-grps         = Protein Non-Protein
tau_t           = 0.1     0.1
ref_t           = 300     300
pcoupl          = C-rescale
pcoupltype      = isotropic
tau_p           = 2.0
ref_p           = 1.0
compressibility = 4.5e-5
pbc             = xyz
DispCorr        = EnerPres
gen_vel         = no
